          ******************************************************
          *         GAMESS VERSION = 12 DEC 2003 (R2)          *
          *             FROM IOWA STATE UNIVERSITY             *
          * M.W.SCHMIDT, K.K.BALDRIDGE, J.A.BOATZ, S.T.ELBERT, *
          *   M.S.GORDON, J.H.JENSEN, S.KOSEKI, N.MATSUNAGA,   *
          *          K.A.NGUYEN, S.J.SU, T.L.WINDUS,           *
          *       TOGETHER WITH M.DUPUIS, J.A.MONTGOMERY       *
          *         J.COMPUT.CHEM.  14, 1347-1363(1993)        *
          **************** SPEC-CPU2006 VERSION ****************

     SINCE 1993, STUDENTS AND POSTDOCS WORKING AT IOWA STATE UNIVERSITY
     AND ALSO IN THEIR VARIOUS JOBS AFTER LEAVING ISU HAVE MADE IMPORTANT
     CONTRIBUTIONS TO THE CODE:
     IVANA ADAMOVIC, CHRISTINE AIKENS, ROB BELL, PRADIPTA BANDYOPADHYAY,
     BRETT BODE, GALINA CHABAN, WEI CHEN, CHEOL HO CHOI, PAUL DAY,
     TIM DUDLEY, DMITRI FEDOROV, GRAHAM FLETCHER, MARK FREITAG,
     KURT GLAESEMANN, GRANT MERRILL, HEATHER NETZLOFF, RYAN OLSON,
     MIKE PAK, JIM SHOEMAKER, TETSUYA TAKETSUGU, SIMON WEBB.

     ADDITIONAL CODE HAS BEEN PROVIDED BY COLLABORATORS IN OTHER GROUPS:
     IOWA STATE UNIVERSITY: JOE IVANIC, KLAUS RUEDENBERG
     UNIVERSITY OF TOKYO: KIMIHIKO HIRAO, HARUYUKI NAKANO, TAKAHITO
          NAKAJIMA, TAKAO TSUNEDA, MUNEAKI KAMIYA, SUSUMU YANAGISAWA
     ODENSE UNIVERSITY: FRANK JENSEN
     UNIVERSITY OF IOWA: VISVALDAS KAIRYS, HUI LI
     NATIONAL INST. OF STANDARDS AND TECHNOLOGY: WALT STEVENS, DAVID GARMER
     UNIVERSITY OF PISA: BENEDETTA MENNUCCI, JACOPO TOMASI
     UNIVERSITY OF MEMPHIS: HENRY KURTZ, PRAKASHAN KORAMBATH
     UNIVERSITY OF ALBERTA: MARIUSZ KLOBUKOWSKI
     UNIVERSITY OF NEW ENGLAND: MARK SPACKMAN
     MIE UNIVERSITY: HIROAKI UMEDA
     MICHIGAN STATE UNIVERSITY: KAROL KOWALSKI, PIOTR PIECUCH
     UNIVERSITY OF SILESIA: MONIKA MUSIAL, STANISLAW KUCHARSKI
     FACULTES UNIVERSITAIRES NOTRE-DAME DE LA PAIX:
          OLIVIER QUINET, BENOIT CHAMPAGNE
     UNIVERSITY OF CALIFORNIA - SANTA BARBARA: BERNARD KIRTMAN

 EXECUTION OF GAMESS BEGUN 

            ECHO OF THE FIRST FEW INPUT CARDS -
 INPUT CARD>!   cytosine SCF test...xx AOs                                                  
 INPUT CARD>!                                                                               
 INPUT CARD>!   The FINAL energy=                                                           
 INPUT CARD>!   The Cartesian RMS gradient=                                                 
 INPUT CARD>!   This job takes xx seconds on a RS/6000 model 350                            
 INPUT CARD>!   This job was run 2/xx/94                                                    
 INPUT CARD>!                                                                               
 INPUT CARD> $contrl scftyp=rhf runtyp=gradient coord=zmt $end                              
 INPUT CARD> $system memory=400000 timlim=99999.0 $end                                      
 INPUT CARD> $basis  gbasis=TZV ngauss=6 ndfunc=1 npfunc=1 $end                             
 INPUT CARD> $guess  guess=huckel $end                                                      
 INPUT CARD> $scf    dirscf=.true. $end                                                     
 INPUT CARD> $data                                                                          
 INPUT CARD>cytosine...one of the bases found in nucleic acids...RHF/6-31G(d)//RHF/AM1      
 INPUT CARD>C1                                                                              
 INPUT CARD>C                                                                               
 INPUT CARD>C      1   1.4650373                                                            
 INPUT CARD>C      2   1.3716299  1   117.7958997                                           
 INPUT CARD>N      3   1.3647282  2   121.3155803  1      .3498173  0                       
 INPUT CARD>C      4   1.4396187  3   119.9661479  2      .2091058  0                       
 INPUT CARD>N      5   1.4011663  3    90.9801250  2      .2114610  0                       
 INPUT CARD>O      5   1.2468098  4   115.9883744  3   179.7178226  0                       
 INPUT CARD>N      1   1.3788003  2   118.0962168  3   176.8645647  0                       
 INPUT CARD>H      2   1.0941969  3   121.2004089  4   179.6832397  0                       
 INPUT CARD>H      3   1.1066467  4   117.1420349  5  -179.7448468  0                       
 INPUT CARD>H      4    .9940077  5   118.5566942  6  -179.8953981  0                       
 INPUT CARD>H      8    .9887008  1   117.8840921  2    15.7868234  0                       
 INPUT CARD>H      8    .9916901  1   119.8259677  2   173.2680833  0                       
 INPUT CARD> $end                                                                           
 INPUT CARD>                                                                                

 ..... DONE SETTING UP THE RUN .....
LOCMEM is    1   1
     400000 WORDS OF MEMORY AVAILABLE

     BASIS OPTIONS
     -------------
     GBASIS=TZV          IGAUSS=       0      POLAR=HONDO7  
     NDFUNC=       1     NFFUNC=       0     DIFFSP=       F
     NPFUNC=       1      DIFFS=       F


     RUN TITLE
     ---------
 cytosine...one of the bases found in nucleic acids...RHF/6-31G(d)//RHF/AM1      

 THE POINT GROUP OF THE MOLECULE IS C1      
 THE ORDER OF THE PRINCIPAL AXIS IS     0

 YOUR FULLY SUBSTITUTED Z-MATRIX IS
 C   
 C      1   1.4650373
 C      2   1.3716299  1  117.7959
 N      3   1.3647282  2  121.3156  1    0.3498  0
 C      4   1.4396187  3  119.9661  2    0.2091  0
 N      5   1.4011663  3   90.9801  2    0.2115  0
 O      5   1.2468098  4  115.9884  3  179.7178  0
 N      1   1.3788003  2  118.0962  3  176.8646  0
 H      2   1.0941969  3  121.2004  4  179.6832  0
 H      3   1.1066467  4  117.1420  5 -179.7448  0
 H      4   0.9940077  5  118.5567  6 -179.8954  0
 H      8   0.9887008  1  117.8841  2   15.7868  0
 H      8   0.9916901  1  119.8260  2  173.2681  0

 THE MOMENTS OF INERTIA ARE (AMU-ANGSTROM**2)
 IXX=   132.254   IYY=   260.759   IZZ=   392.883

 ATOM      ATOMIC                      COORDINATES (BOHR)
           CHARGE         X                   Y                   Z
 C           6.0     2.2669311020       -0.5218552546        0.0208873820
 C           6.0     2.0984851111        2.2415330640        0.0238416361
 C           6.0    -0.2635520984        3.3085380611       -0.0038847765
 N           7.0    -2.3920570783        1.8524273767       -0.0198536711
 C           6.0    -2.1831061295       -0.8599413366        0.0009643730
 N           7.0     0.2024344587       -2.0082848229        0.0391226293
 O           8.0    -4.2153816810       -2.0520661390       -0.0051871457
 N           7.0     4.6338080702       -1.6068482056       -0.0770887112
 H           1.0     3.8027918449        3.4123646305        0.0268311474
 H           1.0    -0.5267939208        5.3831438242       -0.0127726154
 H           1.0    -4.1059351672        2.6208280123       -0.0438769828
 H           1.0     6.1075364945       -0.5252265845        0.3089671055
 H           1.0     4.8168663786       -3.4626283179        0.1087347598

          INTERNUCLEAR DISTANCES (ANGS.)
          ------------------------------

                    C              C              C              N         

  1  C               0.0000000      1.4650373 *    2.4293715 *    2.7671998 *  
  2  C               1.4650373 *    0.0000000      1.3716299 *    2.3853090 *  
  3  C               2.4293715 *    1.3716299 *    0.0000000      1.3647282 *  
  4  N               2.7671998 *    2.3853090 *    1.3647282 *    0.0000000    
  5  C               2.3616684 *    2.7977262 *    2.4285103 *    1.4396187 *  
  6  N               1.3462286 *    2.4625907 *    2.8244187 *    2.4616677 *  
  7  O               3.5245987      4.0405291      3.5242186      2.2803670 *  
  8  N               1.3788003 *    2.4392768 *    3.6719913      4.1442601    
  9  H               2.2349198 *    1.0941969 *    2.1525794 *    3.3805993    
 10  H               3.4569107      2.1666011 *    1.1066467 *    2.1130820 *  
 11  H               3.7602904      3.2895627      2.0657207 *    0.9940077 *  
 12  H               2.0380711 *    2.5820785 *    3.9382449      4.6737003    
 13  H               2.0602627 *    3.3440594      4.4799794      4.7400498    

                    C              N              O              N         

  1  C               2.3616684 *    1.3462286 *    3.5245987      1.3788003 *  
  2  C               2.7977262 *    2.4625907 *    4.0405291      2.4392768 *  
  3  C               2.4285103 *    2.8244187 *    3.5242186      3.6719913    
  4  N               1.4396187 *    2.4616677 *    2.2803670 *    4.1442601    
  5  C               0.0000000      1.4011663 *    1.2468098 *    3.6291793    
  6  N               1.4011663 *    0.0000000      2.3380402 *    2.3553874 *  
  7  O               1.2468098 *    2.3380402 *    0.0000000      4.6888672    
  8  N               3.6291793      2.3553874 *    4.6888672      0.0000000    
  9  H               3.8916748      3.4435644      5.1347139      2.6927732 *  
 10  H               3.4179964      3.9304615      4.3921101      4.5979364    
 11  H               2.1044387 *    3.3467114      2.4735522 *    5.1375852    
 12  H               4.3938175      3.2250524      5.5245844      0.9887008 *  
 13  H               3.9523982      2.5605259 *    4.8379701      0.9916901 *  

                    H              H              H              H         

  1  C               2.2349198 *    3.4569107      3.7602904      2.0380711 *  
  2  C               1.0941969 *    2.1666011 *    3.2895627      2.5820785 *  
  3  C               2.1525794 *    1.1066467 *    2.0657207 *    3.9382449    
  4  N               3.3805993      2.1130820 *    0.9940077 *    4.6737003    
  5  C               3.8916748      3.4179964      2.1044387 *    4.3938175    
  6  N               3.4435644      3.9304615      3.3467114      3.2250524    
  7  O               5.1347139      4.3921101      2.4735522 *    5.5245844    
  8  N               2.6927732 *    4.5979364      5.1375852      0.9887008 *  
  9  H               0.0000000      2.5173965 *    4.2061933      2.4189868 *  
 10  H               2.5173965 *    0.0000000      2.3925372 *    4.7042249    
 11  H               4.2061933      2.3925372 *    0.0000000      5.6584159    
 12  H               2.4189868 *    4.7042249      5.6584159      0.0000000    
 13  H               3.6777089      5.4691731      5.7153132      1.7011424 *  

                    H         

  1  C               2.0602627 *  
  2  C               3.3440594    
  3  C               4.4799794    
  4  N               4.7400498    
  5  C               3.9523982    
  6  N               2.5605259 *  
  7  O               4.8379701    
  8  N               0.9916901 *  
  9  H               3.6777089    
 10  H               5.4691731    
 11  H               5.7153132    
 12  H               1.7011424 *  
 13  H               0.0000000    

  * ... LESS THAN  3.000


     ATOMIC BASIS SET
     ----------------
 THE CONTRACTED PRIMITIVE FUNCTIONS HAVE BEEN UNNORMALIZED
 THE CONTRACTED BASIS FUNCTIONS ARE NOW NORMALIZED TO UNITY

 SHELL TYPE PRIMITIVE    EXPONENT          CONTRACTION COEFFICIENTS

 C         

   1   S    1          9471.0000000      0.000776000185
   1   S    2          1398.0000000      0.006218001481
   1   S    3           307.5000000      0.033575007997
   1   S    4            84.5400000      0.134278031981
   1   S    5            26.9100000      0.393668093760
   1   S    6             9.4090000      0.544169129605

   2   S    7             9.4090000      0.248075019298
   2   S    8             3.5000000      0.782844060899

   3   S    9             1.0680000      1.000000000000

   4   S   10             0.4002000      1.000000000000

   5   S   11             0.1351000      1.000000000000

   6   P   12            25.3700000      0.016294995820
   6   P   13             5.7760000      0.102097973810
   6   P   14             1.7870000      0.340227912727
   6   P   15             0.6577000      0.668268828580

   7   P   16             0.2480000      1.000000000000

   8   P   17             0.0910600      1.000000000000

   9   D   18             0.7200000      1.000000000000

 C         

  10   S   19          9471.0000000      0.000776000185
  10   S   20          1398.0000000      0.006218001481
  10   S   21           307.5000000      0.033575007997
  10   S   22            84.5400000      0.134278031981
  10   S   23            26.9100000      0.393668093760
  10   S   24             9.4090000      0.544169129605

  11   S   25             9.4090000      0.248075019298
  11   S   26             3.5000000      0.782844060899

  12   S   27             1.0680000      1.000000000000

  13   S   28             0.4002000      1.000000000000

  14   S   29             0.1351000      1.000000000000

  15   P   30            25.3700000      0.016294995820
  15   P   31             5.7760000      0.102097973810
  15   P   32             1.7870000      0.340227912727
  15   P   33             0.6577000      0.668268828580

  16   P   34             0.2480000      1.000000000000

  17   P   35             0.0910600      1.000000000000

  18   D   36             0.7200000      1.000000000000

 C         

  19   S   37          9471.0000000      0.000776000185
  19   S   38          1398.0000000      0.006218001481
  19   S   39           307.5000000      0.033575007997
  19   S   40            84.5400000      0.134278031981
  19   S   41            26.9100000      0.393668093760
  19   S   42             9.4090000      0.544169129605

  20   S   43             9.4090000      0.248075019298
  20   S   44             3.5000000      0.782844060899

  21   S   45             1.0680000      1.000000000000

  22   S   46             0.4002000      1.000000000000

  23   S   47             0.1351000      1.000000000000

  24   P   48            25.3700000      0.016294995820
  24   P   49             5.7760000      0.102097973810
  24   P   50             1.7870000      0.340227912727
  24   P   51             0.6577000      0.668268828580

  25   P   52             0.2480000      1.000000000000

  26   P   53             0.0910600      1.000000000000

  27   D   54             0.7200000      1.000000000000

 N         

  28   S   55         13520.0000000      0.000760000458
  28   S   56          1999.0000000      0.006076003659
  28   S   57           440.0000000      0.032847019782
  28   S   58           120.9000000      0.132396079735
  28   S   59            38.4700000      0.393261236839
  28   S   60            13.4600000      0.546339329029

  29   S   61            13.4600000      0.252036044515
  29   S   62             4.9930000      0.779385137657

  30   S   63             1.5690000      1.000000000000

  31   S   64             0.5800000      1.000000000000

  32   S   65             0.1923000      1.000000000000

  33   P   66            35.9100000      0.016915996090
  33   P   67             8.4800000      0.102199976379
  33   P   68             2.7060000      0.338133921850
  33   P   69             0.9921000      0.669280845314

  34   P   70             0.3727000      1.000000000000

  35   P   71             0.1346000      1.000000000000

  36   D   72             0.9800000      1.000000000000

 C         

  37   S   73          9471.0000000      0.000776000185
  37   S   74          1398.0000000      0.006218001481
  37   S   75           307.5000000      0.033575007997
  37   S   76            84.5400000      0.134278031981
  37   S   77            26.9100000      0.393668093760
  37   S   78             9.4090000      0.544169129605

  38   S   79             9.4090000      0.248075019298
  38   S   80             3.5000000      0.782844060899

  39   S   81             1.0680000      1.000000000000

  40   S   82             0.4002000      1.000000000000

  41   S   83             0.1351000      1.000000000000

  42   P   84            25.3700000      0.016294995820
  42   P   85             5.7760000      0.102097973810
  42   P   86             1.7870000      0.340227912727
  42   P   87             0.6577000      0.668268828580

  43   P   88             0.2480000      1.000000000000

  44   P   89             0.0910600      1.000000000000

  45   D   90             0.7200000      1.000000000000

 N         

  46   S   91         13520.0000000      0.000760000458
  46   S   92          1999.0000000      0.006076003659
  46   S   93           440.0000000      0.032847019782
  46   S   94           120.9000000      0.132396079735
  46   S   95            38.4700000      0.393261236839
  46   S   96            13.4600000      0.546339329029

  47   S   97            13.4600000      0.252036044515
  47   S   98             4.9930000      0.779385137657

  48   S   99             1.5690000      1.000000000000

  49   S  100             0.5800000      1.000000000000

  50   S  101             0.1923000      1.000000000000

  51   P  102            35.9100000      0.016915996090
  51   P  103             8.4800000      0.102199976379
  51   P  104             2.7060000      0.338133921850
  51   P  105             0.9921000      0.669280845314

  52   P  106             0.3727000      1.000000000000

  53   P  107             0.1346000      1.000000000000

  54   D  108             0.9800000      1.000000000000

 O         

  55   S  109         18050.0000000      0.000756999830
  55   S  110          2660.0000000      0.006065998635
  55   S  111           585.7000000      0.032781992623
  55   S  112           160.9000000      0.132608970160
  55   S  113            51.1600000      0.396838910703
  55   S  114            17.9000000      0.542571877910

  56   S  115            17.9000000      0.262489933687
  56   S  116             6.6390000      0.769827805517

  57   S  117             2.0770000      1.000000000000

  58   S  118             0.7736000      1.000000000000

  59   S  119             0.2558000      1.000000000000

  60   P  120            49.8300000      0.016357993061
  60   P  121            11.4900000      0.106452954840
  60   P  122             3.6090000      0.349301851817
  60   P  123             1.3210000      0.657182721206

  61   P  124             0.4821000      1.000000000000

  62   P  125             0.1651000      1.000000000000

  63   D  126             1.2800000      1.000000000000

 N         

  64   S  127         13520.0000000      0.000760000458
  64   S  128          1999.0000000      0.006076003659
  64   S  129           440.0000000      0.032847019782
  64   S  130           120.9000000      0.132396079735
  64   S  131            38.4700000      0.393261236839
  64   S  132            13.4600000      0.546339329029

  65   S  133            13.4600000      0.252036044515
  65   S  134             4.9930000      0.779385137657

  66   S  135             1.5690000      1.000000000000

  67   S  136             0.5800000      1.000000000000

  68   S  137             0.1923000      1.000000000000

  69   P  138            35.9100000      0.016915996090
  69   P  139             8.4800000      0.102199976379
  69   P  140             2.7060000      0.338133921850
  69   P  141             0.9921000      0.669280845314

  70   P  142             0.3727000      1.000000000000

  71   P  143             0.1346000      1.000000000000

  72   D  144             0.9800000      1.000000000000

 H         

  73   S  145            33.6400000      0.025373656982
  73   S  146             5.0580000      0.189681435760
  73   S  147             1.1470000      0.852921469637

  74   S  148             0.3211000      1.000000000000

  75   S  149             0.1013000      1.000000000000

  76   P  150             1.0000000      1.000000000000

 H         

  77   S  151            33.6400000      0.025373656982
  77   S  152             5.0580000      0.189681435760
  77   S  153             1.1470000      0.852921469637

  78   S  154             0.3211000      1.000000000000

  79   S  155             0.1013000      1.000000000000

  80   P  156             1.0000000      1.000000000000

 H         

  81   S  157            33.6400000      0.025373656982
  81   S  158             5.0580000      0.189681435760
  81   S  159             1.1470000      0.852921469637

  82   S  160             0.3211000      1.000000000000

  83   S  161             0.1013000      1.000000000000

  84   P  162             1.0000000      1.000000000000

 H         

  85   S  163            33.6400000      0.025373656982
  85   S  164             5.0580000      0.189681435760
  85   S  165             1.1470000      0.852921469637

  86   S  166             0.3211000      1.000000000000

  87   S  167             0.1013000      1.000000000000

  88   P  168             1.0000000      1.000000000000

 H         

  89   S  169            33.6400000      0.025373656982
  89   S  170             5.0580000      0.189681435760
  89   S  171             1.1470000      0.852921469637

  90   S  172             0.3211000      1.000000000000

  91   S  173             0.1013000      1.000000000000

  92   P  174             1.0000000      1.000000000000

 TOTAL NUMBER OF BASIS SET SHELLS             =   92
 NUMBER OF CARTESIAN GAUSSIAN BASIS FUNCTIONS =  190
 NUMBER OF ELECTRONS                          =   58
 CHARGE OF MOLECULE                           =    0
 SPIN MULTIPLICITY                            =    1
 NUMBER OF OCCUPIED ORBITALS (ALPHA)          =   29
 NUMBER OF OCCUPIED ORBITALS (BETA )          =   29
 TOTAL NUMBER OF ATOMS                        =   13
 THE NUCLEAR REPULSION ENERGY IS      351.0533037396

     $CONTRL OPTIONS
     ---------------
 SCFTYP=RHF          RUNTYP=GRADIENT     EXETYP=RUN     
 MPLEVL=       0     CITYP =NONE         CCTYP =NONE    
 MULT  =       1     ICHARG=       0     NZVAR =       0     COORD =ZMT     
 ECP   =NONE         RELWFN=NONE         LOCAL =NONE         NUMGRD=       F
 ISPHER=      -1     NOSYM =       0     MAXIT =      30     UNITS =ANGS    
 PLTORB=       F     MOLPLT=       F     AIMPAC=       F     FRIEND=        
 NPRINT=       7     IREST =       0     GEOM  =INPUT   
 NORMF =       0     NORMP =       0     ITOL  =      20     ICUT  =       9
 INTTYP=POPLE        QMTTOL= 1.0E-06

     $SYSTEM OPTIONS
     ---------------
  REPLICATED MEMORY=      400000 WORDS (ON EVERY NODE).
 DISTRIBUTED MEMDDI=           0 MILLION WORDS IN AGGREGATE,
 MEMDDI DISTRIBUTED OVER   1 PROCESSORS IS           0 WORDS/PROCESSOR.
 TOTAL MEMORY REQUESTED ON EACH PROCESSOR=      400000 WORDS.
 TIMLIM=   5999940.0 SECONDS.
 COREFL=F     KDIAG= 0

          ----------------
          PROPERTIES INPUT
          ----------------

     MOMENTS            FIELD           POTENTIAL          DENSITY
 IEMOM =       1   IEFLD =       0   IEPOT =       0   IEDEN =       0
 WHERE =COMASS     WHERE =NUCLEI     WHERE =NUCLEI     WHERE =NUCLEI  
 OUTPUT=BOTH       OUTPUT=BOTH       OUTPUT=BOTH       OUTPUT=BOTH    
 IEMINT=       0   IEFINT=       0                     IEDINT=       0
                                                       MORB  =       0
          EXTRAPOLATION IN EFFECT
          SOSCF IN EFFECT

     -------------------------------
     INTEGRAL TRANSFORMATION OPTIONS
     -------------------------------
     NWORD  =       0     CUTOFF = 1.0E-09
     MPTRAN =       0     DIRTRF =       T
     AOINTS =DUP     

          ----------------------
          INTEGRAL INPUT OPTIONS
          ----------------------
 NOPK  =       1 NORDER=       0 SCHWRZ=       T

   --- ENCODED Z MATRIX ---
 COORD  TYPE   I   J   K   L   M   N
    1      1    2   1
    2      1    3   2
    3      2    3   2   1
    4      1    4   3
    5      2    4   3   2
    6      3    4   3   2   1
    7      1    5   4
    8      2    5   4   3
    9      3    5   4   3   2
   10      1    6   5
   11      2    6   5   3
   12      3    6   5   3   2
   13      1    7   5
   14      2    7   5   4
   15      3    7   5   4   3
   16      1    8   1
   17      2    8   1   2
   18      3    8   1   2   3
   19      1    9   2
   20      2    9   2   3
   21      3    9   2   3   4
   22      1   10   3
   23      2   10   3   4
   24      3   10   3   4   5
   25      1   11   4
   26      2   11   4   5
   27      3   11   4   5   6
   28      1   12   8
   29      2   12   8   1
   30      3   12   8   1   2
   31      1   13   8
   32      2   13   8   1
   33      3   13   8   1   2

 THE DETERMINANT OF THE G MATRIX IS 10**(   -29)

     ------------------------------------------
     THE POINT GROUP IS C1 , NAXIS= 0, ORDER= 1
     ------------------------------------------

     DIMENSIONS OF THE SYMMETRY SUBSPACES ARE
 A   =  190

 ..... DONE SETTING UP THE RUN .....
 STEP CPU TIME =     0.00 TOTAL CPU TIME =        0.0 (    0.0 MIN)
 TOTAL WALL CLOCK TIME=        0.0 SECONDS, CPU UTILIZATION IS 100.00%

                    --------------------------------
                    SINGLE POINT ENERGY AND GRADIENT
                    --------------------------------

          ********************
          1 ELECTRON INTEGRALS
          ********************
 ...... END OF ONE-ELECTRON INTEGRALS ......
 STEP CPU TIME =     0.00 TOTAL CPU TIME =        0.0 (    0.0 MIN)
 TOTAL WALL CLOCK TIME=        0.0 SECONDS, CPU UTILIZATION IS 100.00%

          -------------
          GUESS OPTIONS
          -------------
          GUESS =HUCKEL            NORB  =       0          NORDER=       0
          MIX   =       F          PRTMO =       F          PUNMO =       F
          TOLZ  = 1.0E-08          TOLE  = 1.0E-05
          SYMDEN=       F          PURIFY=       F

 INITIAL GUESS ORBITALS GENERATED BY HUCKEL   ROUTINE.
 HUCKEL GUESS REQUIRES    278533 WORDS.

 SYMMETRIES FOR INITIAL GUESS ORBITALS FOLLOW.   BOTH SET(S).
    29 ORBITALS ARE OCCUPIED (    8 CORE ORBITALS).
     9=A       10=A       11=A       12=A       13=A       14=A       15=A   
    16=A       17=A       18=A       19=A       20=A       21=A       22=A   
    23=A       24=A       25=A       26=A       27=A       28=A       29=A   
    30=A       31=A       32=A       33=A       34=A       35=A       36=A   
    37=A       38=A       39=A   
 ...... END OF INITIAL ORBITAL SELECTION ......
 STEP CPU TIME =     0.00 TOTAL CPU TIME =        0.0 (    0.0 MIN)
 TOTAL WALL CLOCK TIME=        0.0 SECONDS, CPU UTILIZATION IS 100.00%

          --------------------
          2 ELECTRON INTEGRALS
          --------------------

 DIRECT SCF METHOD SKIPS INTEGRAL STORAGE ON DISK.
 DIRECT TRANSFORMATION SKIPS AO INTEGRAL STORAGE ON DISK.
  ...... END OF TWO-ELECTRON INTEGRALS .....

          --------------------------
                 RHF SCF CALCULATION
          --------------------------

     NUCLEAR ENERGY =       351.0533037396
     MAXIT =   30     NPUNCH=    2
     EXTRAP=T  DAMP=F  SHIFT=F  RSTRCT=F  DIIS=F  DEM=F  SOSCF=T
     DENSITY MATRIX CONV=  2.00E-05
     SOSCF WILL OPTIMIZE    4669 ORBITAL ROTATIONS, SOGTOL=   0.250
     MEMORY REQUIRED FOR RHF STEP=    298288 WORDS.

 DIRECT SCF CALCULATION, SCHWRZ=T   FDIFF=T
 SCHWARZ INEQUALITY OVERHEAD:     16814 INTEGRALS, T=        0.00

                                                                              NONZERO     BLOCKS
 ITER EX DEM    TOTAL ENERGY       E CHANGE  DENSITY CHANGE     ORB. GRAD      INTEGRALS    SKIPPED
   1  0  0     -391.191993921  -391.191993921   0.649886500   0.000000000      110228242    3087424
          ---------------START SECOND ORDER SCF---------------
   2  1  0     -392.484508740    -1.292514819   0.225871399   0.081475021      110551108    3078135
   3  2  0     -392.541129214    -0.056620474   0.118340715   0.077337056      110131705    3193824
   4  3  0     -392.719045612    -0.177916398   0.042399427   0.016728384      109525989    3315177
   5  4  0     -392.725545519    -0.006499907   0.006896823   0.005678666      108658859    3465157
   6  5  0     -392.726396631    -0.000851112   0.003104397   0.002167297      106560349    3731317
   7  6  0     -392.726472388    -0.000075757   0.001281539   0.000935839      104930281    3885685
   8  7  0     -392.726494602    -0.000022214   0.000397156   0.000242010      102412139    4101105
   9  8  0     -392.726496429    -0.000001827   0.000275242   0.000057371       98845374    4350684
  10  9  0     -392.726496774    -0.000000345   0.000051011   0.000028770       96822235    4502327
  11 10  0     -392.726496813    -0.000000039   0.000021717   0.000006919       91804458    4816269
  12 11  0     -392.726496817    -0.000000004   0.000010480   0.000005464       88271701    5031200
  13 12  0     -392.726496819    -0.000000001   0.000003341   0.000001374       82335890    5395687

          -----------------
          DENSITY CONVERGED
          -----------------
     TIME TO FORM FOCK OPERATORS=       0.0 SECONDS (       0.0 SEC/ITER)
     FOCK TIME ON FIRST ITERATION=       0.0, LAST ITERATION=       0.0
     TIME TO SOLVE SCF EQUATIONS=       0.0 SECONDS (       0.0 SEC/ITER)

 FINAL RHF ENERGY IS     -392.7264968185 AFTER  13 ITERATIONS
 ...... END OF RHF CALCULATION ......
 STEP CPU TIME =     0.00 TOTAL CPU TIME =        0.0 (    0.0 MIN)
 TOTAL WALL CLOCK TIME=        0.0 SECONDS, CPU UTILIZATION IS 100.00%

          -----------------
          ENERGY COMPONENTS
          -----------------

         WAVEFUNCTION NORMALIZATION =       1.0000000000

                ONE ELECTRON ENERGY =   -1230.4048670894
                TWO ELECTRON ENERGY =     486.6250665313
           NUCLEAR REPULSION ENERGY =     351.0533037396
                                      ------------------
                       TOTAL ENERGY =    -392.7264968185

 ELECTRON-ELECTRON POTENTIAL ENERGY =     486.6250665313
  NUCLEUS-ELECTRON POTENTIAL ENERGY =   -1622.1262219570
   NUCLEUS-NUCLEUS POTENTIAL ENERGY =     351.0533037396
                                      ------------------
             TOTAL POTENTIAL ENERGY =    -784.4478516861
               TOTAL KINETIC ENERGY =     391.7213548676
                 VIRIAL RATIO (V/T) =       2.0025659616

          ---------------------------------------
          MULLIKEN AND LOWDIN POPULATION ANALYSES
          ---------------------------------------

     MULLIKEN ATOMIC POPULATION IN EACH MOLECULAR ORBITAL

                      1          2          3          4          5

                  2.000000   2.000000   2.000000   2.000000   2.000000

    1             0.000000   0.000003   0.000623   0.000835   0.000060
    2             0.000003  -0.000141  -0.000072  -0.000138  -0.000060
    3            -0.000003   0.000465   0.000005   0.000055   0.000081
    4            -0.000011   1.999356   0.000000  -0.000033   0.000130
    5             0.000481   0.000264   0.000004   0.000504   1.999955
    6            -0.000014  -0.000016  -0.000010   1.998801  -0.000127
    7             1.999544  -0.000012   0.000000  -0.000004  -0.000043
    8             0.000000   0.000000   1.999326  -0.000016   0.000000
    9             0.000000  -0.000004   0.000003  -0.000004  -0.000001
   10             0.000000   0.000050   0.000000   0.000000   0.000002
   11             0.000000   0.000035   0.000000  -0.000001   0.000003
   12             0.000000   0.000000   0.000055   0.000000   0.000000
   13             0.000000   0.000000   0.000066   0.000000   0.000000

                      6          7          8          9         10

                  2.000000   2.000000   2.000000   2.000000   2.000000

    1             1.999536   0.000025   0.000338   0.028488   0.362503
    2             0.000214   0.000309   1.999245   0.029050   0.113563
    3             0.000043   1.999430   0.000400   0.042240   0.085417
    4            -0.000022   0.000082  -0.000027   0.331740   0.164720
    5             0.000048   0.000023   0.000009   0.548678   0.125932
    6             0.000061  -0.000007  -0.000006   0.140636   0.202365
    7             0.000000   0.000000   0.000000   0.847868   0.389786
    8             0.000112   0.000000  -0.000021   0.011590   0.475134
    9             0.000024   0.000018   0.000037   0.000456   0.001984
   10             0.000001   0.000136   0.000028  -0.004318  -0.002514
   11             0.000000  -0.000016   0.000000   0.022699   0.007968
   12            -0.000006   0.000000  -0.000003   0.000318   0.037634
   13            -0.000010   0.000000   0.000000   0.000555   0.035509

                     11         12         13         14         15

                  2.000000   2.000000   2.000000   2.000000   2.000000

    1             0.159979   0.256435   0.168571   0.361387   0.249151
    2             0.017688   0.004513   0.771107   0.266917   0.092850
    3             0.235834   0.023633   0.507885   0.352983   0.183374
    4             0.698378   0.100746   0.173651   0.235028   0.371123
    5             0.103583   0.212916   0.087785   0.151983   0.396986
    6             0.061965   0.767253   0.062066   0.124325   0.247532
    7             0.162483   0.041993   0.049745   0.016115   0.121520
    8             0.419110   0.448154   0.045539   0.241598   0.159947
    9             0.000058   0.000209   0.043574   0.009502   0.029453
   10             0.004924   0.002830   0.033488   0.099080   0.038904
   11             0.063094   0.020195   0.038186   0.045885   0.043114
   12             0.035733   0.071310   0.004108   0.021771   0.062010
   13             0.037171   0.049813   0.014293   0.073425   0.004036

                     16         17         18         19         20

                  2.000000   2.000000   2.000000   2.000000   2.000000

    1             0.037144   0.180334   0.396939   0.119303   0.218676
    2             0.218697   0.160771   0.076695   0.107541   0.578283
    3             0.205567   0.213602   0.240289   0.181404   0.080682
    4             0.721886   0.237198   0.079554   0.143716   0.114511
    5             0.089889   0.151825   0.113591   0.201274   0.090919
    6             0.112638   0.108919   0.063988   0.187817   0.097381
    7             0.015925   0.041463   0.160815   0.084519   0.279069
    8             0.079875   0.563547   0.553919   0.490884   0.044492
    9             0.131970   0.012360   0.005599   0.035985   0.380582
   10             0.050023   0.000590   0.141764   0.092418   0.057492
   11             0.297505   0.013419   0.020073   0.003543   0.031204
   12             0.036207   0.107508   0.099289   0.215370   0.007501
   13             0.002674   0.208465   0.047485   0.136226   0.019207

                     21         22         23         24         25

                  2.000000   2.000000   2.000000   2.000000   2.000000

    1             0.198518   0.149231   0.058951   0.395508   0.001236
    2             0.160482   0.424362   0.059952   0.042252   0.195968
    3             0.246348   0.539704   0.082727   0.032109   0.353333
    4             0.546707   0.134217   0.090884   0.339162   0.275330
    5             0.322122   0.086410   0.386758   0.064330   0.311533
    6             0.217253   0.099612   0.169756   0.101713   0.130977
    7             0.151875   0.041551   0.990176   0.094402   0.725757
    8             0.108420   0.133828   0.040535   0.918673   0.003046
    9             0.010601   0.083135   0.042396   0.000607   0.000540
   10             0.019977   0.211504   0.042265   0.000130   0.000920
   11             0.008658   0.047568   0.017080   0.001629   0.001297
   12             0.001021   0.001078   0.018233   0.004563   0.000051
   13             0.008019   0.047802   0.000288   0.004921   0.000013

                     26         27         28         29

                  2.000000   2.000000   2.000000   2.000000

    1             0.147543   0.032805   0.137933   0.004822
    2             0.094376   0.042280   0.200666   0.689672
    3             0.004872   0.024008   0.026561   0.203494
    4             0.016905   0.172165   0.172341   0.286851
    5             0.059254   0.125152   0.013713   0.022005
    6             0.968686   0.511175   0.570726   0.333998
    7             0.663942   1.019123   0.097450   0.453521
    8             0.005868   0.017965   0.767198   0.000554
    9             0.024908   0.011993   0.000649   0.002453
   10             0.000263   0.026320   0.000048   0.000688
   11             0.004761   0.010873   0.001147   0.001907
   12             0.000051   0.002570   0.006358   0.000013
   13             0.008570   0.003572   0.005211   0.000024

               ----- POPULATIONS IN EACH AO -----
                             MULLIKEN      LOWDIN
              1  C   1  S     1.11366     1.06684
              2  C   1  S     0.82488     0.79131
              3  C   1  S     0.18822     0.24865
              4  C   1  S     0.55764     0.26310
              5  C   1  S     0.26239     0.17551
              6  C   1  X     0.54097     0.47254
              7  C   1  Y     0.56851     0.49636
              8  C   1  Z     0.29534     0.25615
              9  C   1  X     0.29957     0.34730
             10  C   1  Y     0.34595     0.38191
             11  C   1  Z     0.34175     0.32670
             12  C   1  X    -0.03105     0.12202
             13  C   1  Y     0.03534     0.14528
             14  C   1  Z     0.06261     0.14437
             15  C   1 XX     0.09287     0.20403
             16  C   1 YY     0.08152     0.18442
             17  C   1 ZZ     0.01535     0.09341
             18  C   1 XY     0.02978     0.04964
             19  C   1 XZ     0.02778     0.04548
             20  C   1 YZ     0.01377     0.02370
             21  C   2  S     1.11255     1.06512
             22  C   2  S     0.82566     0.79179
             23  C   2  S     0.14945     0.24051
             24  C   2  S     0.63486     0.26712
             25  C   2  S     0.37532     0.20580
             26  C   2  X     0.54650     0.47163
             27  C   2  Y     0.51855     0.45433
             28  C   2  Z     0.47622     0.43470
             29  C   2  X     0.38867     0.41835
             30  C   2  Y     0.35503     0.40483
             31  C   2  Z     0.53642     0.52331
             32  C   2  X     0.06955     0.14200
             33  C   2  Y    -0.00246     0.12755
             34  C   2  Z     0.23006     0.23154
             35  C   2 XX     0.05413     0.18003
             36  C   2 YY     0.05066     0.17538
             37  C   2 ZZ     0.00255     0.10042
             38  C   2 XY     0.01523     0.02885
             39  C   2 XZ     0.00553     0.00770
             40  C   2 YZ     0.00257     0.00501
             41  C   3  S     1.11363     1.06697
             42  C   3  S     0.82456     0.79173
             43  C   3  S     0.17809     0.24714
             44  C   3  S     0.59380     0.26764
             45  C   3  S     0.31087     0.19602
             46  C   3  X     0.56688     0.49139
             47  C   3  Y     0.55200     0.47495
             48  C   3  Z     0.33059     0.29216
             49  C   3  X     0.30218     0.36767
             50  C   3  Y     0.39798     0.42123
             51  C   3  Z     0.37045     0.36093
             52  C   3  X    -0.00801     0.11913
             53  C   3  Y     0.03552     0.13336
             54  C   3  Z     0.09902     0.16200
             55  C   3 XX     0.07560     0.19197
             56  C   3 YY     0.06240     0.17458
             57  C   3 ZZ     0.01105     0.09766
             58  C   3 XY     0.02228     0.03734
             59  C   3 XZ     0.02267     0.04059
             60  C   3 YZ     0.00499     0.00760
             61  N   4  S     1.07756     1.04501
             62  N   4  S     0.85644     0.80656
             63  N   4  S     0.06002     0.27153
             64  N   4  S     1.06608     0.31494
             65  N   4  S     0.46115     0.25043
             66  N   4  X     0.55940     0.48692
             67  N   4  Y     0.54942     0.49145
             68  N   4  Z     0.66805     0.62354
             69  N   4  X     0.50255     0.49709
             70  N   4  Y     0.52079     0.50492
             71  N   4  Z     0.68877     0.67253
             72  N   4  X     0.08344     0.18746
             73  N   4  Y     0.04213     0.18012
             74  N   4  Z     0.31904     0.30959
             75  N   4 XX    -0.00899     0.18074
             76  N   4 YY    -0.01086     0.17970
             77  N   4 ZZ    -0.04319     0.13605
             78  N   4 XY     0.01023     0.01692
             79  N   4 XZ     0.00205     0.00311
             80  N   4 YZ     0.00220     0.00374
             81  C   5  S     1.11357     1.06653
             82  C   5  S     0.82509     0.79095
             83  C   5  S     0.20581     0.25136
             84  C   5  S     0.48278     0.25651
             85  C   5  S     0.26650     0.17572
             86  C   5  X     0.57157     0.49924
             87  C   5  Y     0.47600     0.41328
             88  C   5  Z     0.31649     0.27551
             89  C   5  X     0.27711     0.33519
             90  C   5  Y     0.27511     0.33541
             91  C   5  Z     0.33431     0.32598
             92  C   5  X     0.04421     0.14400
             93  C   5  Y     0.07695     0.14067
             94  C   5  Z     0.06379     0.12869
             95  C   5 XX     0.11889     0.23443
             96  C   5 YY     0.10775     0.20156
             97  C   5 ZZ     0.02143     0.08779
             98  C   5 XY     0.03881     0.06625
             99  C   5 XZ     0.03374     0.05135
            100  C   5 YZ     0.01802     0.03123
            101  N   6  S     1.07937     1.04813
            102  N   6  S     0.85436     0.80689
            103  N   6  S     0.04791     0.28366
            104  N   6  S     1.16179     0.34314
            105  N   6  S     0.55453     0.30394
            106  N   6  X     0.49472     0.43431
            107  N   6  Y     0.65319     0.60130
            108  N   6  Z     0.52942     0.48853
            109  N   6  X     0.42363     0.45652
            110  N   6  Y     0.58646     0.64501
            111  N   6  Z     0.58153     0.57359
            112  N   6  X    -0.05733     0.15467
            113  N   6  Y     0.19935     0.26433
            114  N   6  Z     0.24988     0.29111
            115  N   6 XX    -0.01432     0.19884
            116  N   6 YY    -0.03994     0.16770
            117  N   6 ZZ    -0.04824     0.16513
            118  N   6 XY     0.01600     0.02347
            119  N   6 XZ     0.00213     0.00363
            120  N   6 YZ     0.00500     0.00469
            121  O   7  S     1.06513     1.04380
            122  O   7  S     0.86828     0.81796
            123  O   7  S     0.04074     0.31468
            124  O   7  S     1.34470     0.40355
            125  O   7  S     0.68071     0.41362
            126  O   7  X     0.66034     0.60092
            127  O   7  Y     0.75692     0.70650
            128  O   7  Z     0.62254     0.57774
            129  O   7  X     0.55956     0.62690
            130  O   7  Y     0.67216     0.70645
            131  O   7  Z     0.61201     0.62309
            132  O   7  X     0.16776     0.25896
            133  O   7  Y     0.26205     0.29818
            134  O   7  Z     0.29417     0.32382
            135  O   7 XX    -0.04947     0.20649
            136  O   7 YY    -0.05746     0.20157
            137  O   7 ZZ    -0.06289     0.20045
            138  O   7 XY     0.00621     0.00899
            139  O   7 XZ     0.00368     0.00374
            140  O   7 YZ     0.00144     0.00144
            141  N   8  S     1.07732     1.04463
            142  N   8  S     0.85650     0.80660
            143  N   8  S     0.07951     0.26872
            144  N   8  S     0.99928     0.31206
            145  N   8  S     0.48512     0.26932
            146  N   8  X     0.54078     0.47125
            147  N   8  Y     0.55907     0.48210
            148  N   8  Z     0.69542     0.64451
            149  N   8  X     0.48004     0.49376
            150  N   8  Y     0.50368     0.50650
            151  N   8  Z     0.68890     0.69225
            152  N   8  X     0.08361     0.18623
            153  N   8  Y     0.11792     0.20826
            154  N   8  Z     0.39041     0.36643
            155  N   8 XX    -0.00263     0.17894
            156  N   8 YY    -0.00441     0.17524
            157  N   8 ZZ    -0.03298     0.13419
            158  N   8 XY     0.00806     0.01341
            159  N   8 XZ     0.00246     0.00348
            160  N   8 YZ     0.00123     0.00148
            161  H   9  S     0.26627     0.26477
            162  H   9  S     0.48547     0.40498
            163  H   9  S     0.05909     0.15466
            164  H   9  X     0.00889     0.01691
            165  H   9  Y     0.00536     0.01153
            166  H   9  Z     0.00400     0.01102
            167  H  10  S     0.26550     0.26863
            168  H  10  S     0.48594     0.41011
            169  H  10  S     0.04838     0.14982
            170  H  10  X     0.00166     0.00477
            171  H  10  Y     0.01342     0.02614
            172  H  10  Z     0.00211     0.00522
            173  H  11  S     0.26884     0.26561
            174  H  11  S     0.37169     0.33416
            175  H  11  S     0.03087     0.10606
            176  H  11  X     0.01684     0.03828
            177  H  11  Y     0.00526     0.01444
            178  H  11  Z     0.00831     0.02413
            179  H  12  S     0.27512     0.27125
            180  H  12  S     0.39025     0.34586
            181  H  12  S     0.03559     0.11122
            182  H  12  X     0.01325     0.02931
            183  H  12  Y     0.00817     0.01996
            184  H  12  Z     0.01037     0.02782
            185  H  13  S     0.27058     0.26673
            186  H  13  S     0.37204     0.33922
            187  H  13  S     0.03368     0.11251
            188  H  13  X     0.00325     0.00917
            189  H  13  Y     0.01864     0.04253
            190  H  13  Z     0.00915     0.02562

          ----- MULLIKEN ATOMIC OVERLAP POPULATIONS -----
          (OFF-DIAGONAL ELEMENTS NEED TO BE MULTIPLIED BY 2)

             1           2           3           4           5

    1    4.6567844
    2    0.3676773   5.1528851
    3   -0.0842669   0.6573492   4.7319772
    4    0.0032622  -0.0927950   0.3441036   6.6435686
    5   -0.1061713  -0.0057421  -0.0896128   0.3202836   4.4729282
    6    0.5531843  -0.0426790  -0.0205049  -0.0618958   0.4559455
    7   -0.0036716   0.0003753  -0.0001100  -0.0953138   0.6365633
    8    0.3693223  -0.0532032  -0.0014764   0.0001796  -0.0016931
    9   -0.0369739   0.3832167  -0.0272444   0.0037447   0.0011824
   10    0.0023314  -0.0344630   0.3912898  -0.0315516  -0.0030813
   11   -0.0003927   0.0065185  -0.0355841   0.3726530  -0.0126626
   12   -0.0330808   0.0027912   0.0005721   0.0000360  -0.0003552
   13   -0.0211308   0.0051146   0.0000501   0.0000125   0.0003420

             6           7           8           9          10

    6    6.5589482
    7   -0.0851497   7.9960890
    8   -0.0910561  -0.0000041   6.5597929
    9    0.0040611   0.0000149   0.0034208   0.5033605
   10   -0.0035083  -0.0007372  -0.0003107  -0.0051558   0.5071474
   11    0.0032257   0.0005991   0.0000339   0.0000100  -0.0049955
   12    0.0015347   0.0000039   0.3769363  -0.0005720   0.0000110
   13    0.0073545  -0.0000744   0.3673335   0.0000208   0.0000349

            11          12          13

   11    0.3724259
   12   -0.0000012   0.4073088
   13   -0.0000042  -0.0224408   0.3707235

          TOTAL MULLIKEN AND LOWDIN ATOMIC POPULATIONS
       ATOM         MULL.POP.    CHARGE          LOW.POP.     CHARGE
    1 C             5.666874    0.333126         5.838716    0.161284
    2 C             6.347046   -0.347046         6.275974   -0.275974
    3 C             5.866542    0.133458         5.942043    0.057957
    4 N             7.406288   -0.406288         7.162338   -0.162338
    5 C             5.667927    0.332073         5.811660    0.188340
    6 N             7.279460   -0.279460         7.258591   -0.258591
    7 O             8.448585   -0.448585         8.338855   -0.338855
    8 N             7.529276   -0.529276         7.259373   -0.259373
    9 H             0.829086    0.170914         0.863875    0.136125
   10 H             0.817011    0.182989         0.864692    0.135308
   11 H             0.701826    0.298174         0.782665    0.217335
   12 H             0.732744    0.267256         0.805426    0.194574
   13 H             0.707336    0.292664         0.795793    0.204207

          -------------------------------
          BOND ORDER AND VALENCE ANALYSIS     BOND ORDER THRESHOLD=0.050
          -------------------------------

                   BOND                       BOND                       BOND
  ATOM PAIR DIST  ORDER      ATOM PAIR DIST  ORDER      ATOM PAIR DIST  ORDER
    1   2  1.465  1.088        1   6  1.346  1.581        1   8  1.379  1.144
    2   3  1.372  1.709        2   9  1.094  0.945        3   4  1.365  1.135
    3  10  1.107  0.950        4   5  1.440  0.993        4  11  0.994  0.894
    5   6  1.401  1.272        5   7  1.247  1.917        8  12  0.989  0.916
    8  13  0.992  0.897

                       TOTAL       BONDED        FREE
      ATOM            VALENCE     VALENCE     VALENCE
    1 C                 3.826       3.826       0.000
    2 C                 3.807       3.807       0.000
    3 C                 3.760       3.760       0.000
    4 N                 3.077       3.077       0.000
    5 C                 4.188       4.188       0.000
    6 N                 2.876       2.876       0.000
    7 O                 1.959       1.959       0.000
    8 N                 2.980       2.980       0.000
    9 H                 0.933       0.933       0.000
   10 H                 0.928       0.928       0.000
   11 H                 0.912       0.912       0.000
   12 H                 0.926       0.926       0.000
   13 H                 0.922       0.922       0.000

          ---------------------
          ELECTROSTATIC MOMENTS
          ---------------------

 POINT   1           X           Y           Z (BOHR)    CHARGE
                 0.000000    0.000000    0.000000        0.00 (A.U.)
         DX          DY          DZ         /D/  (DEBYE)
     5.035576    5.856436    0.453995    7.736988
 ...... END OF PROPERTY EVALUATION ......
 STEP CPU TIME =     0.00 TOTAL CPU TIME =        0.0 (    0.0 MIN)
 TOTAL WALL CLOCK TIME=        0.0 SECONDS, CPU UTILIZATION IS 100.00%

 BEGINNING ONE ELECTRON GRADIENT...
 ..... END OF 1-ELECTRON GRADIENT ......

          ----------------------
          GRADIENT OF THE ENERGY
          ----------------------

 THE MINIMUM MEMORY REQUIRED FOR THIS RUN IS     329670 WORDS.
 USING     383770 WORDS OF MEMORY.
 THE COARSE/FINE SCHWARZ SCREENINGS SKIPPED    2508270/   1490704 BLOCKS.
 THE NUMBER OF GRADIENT INTEGRAL BLOCKS COMPUTED WAS   4558389

 ...... END OF 2-ELECTRON GRADIENT ......

                         ----------------------
                         GRADIENT OF THE ENERGY
                         ----------------------

      ATOM                 E'X               E'Y               E'Z 
    1 C                0.027630132       0.018067739       0.002234116
    2 C                0.012259576      -0.006051645      -0.000067202
    3 C               -0.012829758       0.003221329      -0.000743429
    4 N               -0.041204707       0.020932737      -0.000372560
    5 C                0.057007688       0.032540385      -0.000909621
    6 N               -0.015041867      -0.049945043       0.002129121
    7 O               -0.076442899      -0.041673056      -0.000117411
    8 N                0.034391335      -0.016048119      -0.001905357
    9 H                0.014938973       0.008953835       0.000373759
   10 H               -0.002268325       0.023480419       0.000010207
   11 H                0.000175384       0.005318195      -0.000029859
   12 H               -0.002484854       0.000833713       0.000225408
   13 H                0.003869322       0.000369511      -0.000827173

                   MAXIMUM GRADIENT =    0.076442899
                       RMS GRADIENT =    0.022962309
  $VIB   
          IVIB=   0 IATOM=   0 ICOORD=   0 E=     -392.7264968185
  2.763013194E-02 1.806773892E-02 2.234115690E-03 1.225957649E-02-6.051645149E-03
 -6.720156980E-05-1.282975845E-02 3.221328560E-03-7.434285583E-04-4.120470731E-02
  2.093273738E-02-3.725600160E-04 5.700768800E-02 3.254038537E-02-9.096211258E-04
 -1.504186716E-02-4.994504274E-02 2.129120579E-03-7.644289870E-02-4.167305618E-02
 -1.174109452E-04 3.439133543E-02-1.604811918E-02-1.905356659E-03 1.493897325E-02
  8.953834599E-03 3.737591525E-04-2.268325433E-03 2.348041905E-02 1.020705433E-05
  1.753841095E-04 5.318195488E-03-2.985928426E-05-2.484853844E-03 8.337130224E-04
  2.254082060E-04 3.869321682E-03 3.695108674E-04-8.271725233E-04
  5.035576105E+00 5.856435724E+00 4.539946898E-01

..... END OF SINGLE POINT GRADIENT .....
 STEP CPU TIME =     0.00 TOTAL CPU TIME =        0.0 (    0.0 MIN)
 TOTAL WALL CLOCK TIME=        0.0 SECONDS, CPU UTILIZATION IS 100.00%
 EXECUTION OF GAMESS TERMINATED NORMALLY 
